    1C
    1UUSER                                                              
    1UDATE              24.september.2025                               
    1UTIME              13:31:02                                        
    1UHOST                                                              
    1UPGM               CalculiX                                        
    1UVERSION           Version 2.22                             
    1UCOMPILETIME       Mon Aug  5 19:15:25 CEST 2024                    
    1UDIR                                                               
    1UDBN                                                               
    1UMAT    1MATERIALSOLID                                             
    2C                           107                                     1
 -1         1 1.66533E-14-5.00000E+01-5.00000E+01
 -1         2 2.00000E+02-5.00000E+01-5.00000E+01
 -1         3 1.66533E-14 5.00000E+01-5.00000E+01
 -1         4 2.00000E+02 5.00000E+01-5.00000E+01
 -1         5-1.66533E-14 5.00000E+01 5.00000E+01
 -1         6 2.00000E+02 5.00000E+01 5.00000E+01
 -1         7-1.66533E-14-5.00000E+01 5.00000E+01
 -1         8 2.00000E+02-5.00000E+01 5.00000E+01
 -1         9 1.00000E+02-5.00000E+01-5.00000E+01
 -1        10 5.00000E+01-5.00000E+01-5.00000E+01
 -1        11 1.50000E+02-5.00000E+01-5.00000E+01
 -1        12 1.00000E+02 5.00000E+01-5.00000E+01
 -1        13 5.00000E+01 5.00000E+01-5.00000E+01
 -1        14 1.50000E+02 5.00000E+01-5.00000E+01
 -1        15 2.77556E-14-1.42109E-14-5.00000E+01
 -1        16 2.00000E+02-1.42109E-14-5.00000E+01
 -1        17 1.00000E+02 5.00000E+01 5.00000E+01
 -1        18 5.00000E+01 5.00000E+01 5.00000E+01
 -1        19 1.50000E+02 5.00000E+01 5.00000E+01
 -1        20-1.11022E-14 5.00000E+01-3.55271E-14
 -1        21 2.00000E+02 5.00000E+01-5.68434E-14
 -1        22 1.00000E+02-5.00000E+01 5.00000E+01
 -1        23 5.00000E+01-5.00000E+01 5.00000E+01
 -1        24 1.50000E+02-5.00000E+01 5.00000E+01
 -1        25-2.77556E-14 1.42109E-14 5.00000E+01
 -1        26 2.00000E+02 1.42109E-14 5.00000E+01
 -1        27 1.11022E-14-5.00000E+01 3.55271E-14
 -1        28 2.00000E+02-5.00000E+01 0.00000E+00
 -1        29 1.50000E+02-4.97380E-14-5.00000E+01
 -1        30 5.00000E+01-7.10543E-15-5.00000E+01
 -1        31 2.50000E+01 2.50000E+01-5.00000E+01
 -1        32 2.50000E+01-2.50000E+01-5.00000E+01
 -1        33 7.50000E+01-2.50000E+01-5.00000E+01
 -1        34 1.75000E+02-2.50000E+01-5.00000E+01
 -1        35 1.75000E+02 2.50000E+01-5.00000E+01
 -1        36 1.25000E+02-2.50000E+01-5.00000E+01
 -1        37 7.50000E+01 2.50000E+01-5.00000E+01
 -1        38 1.25000E+02 2.50000E+01-5.00000E+01
 -1        39 1.00000E+02-2.84217E-14-5.00000E+01
 -1        40 1.50000E+02 5.00000E+01-1.42109E-14
 -1        41 5.00000E+01 5.00000E+01-7.10543E-15
 -1        42 2.50000E+01 5.00000E+01 2.50000E+01
 -1        43 2.50000E+01 5.00000E+01-2.50000E+01
 -1        44 7.50000E+01 5.00000E+01-2.50000E+01
 -1        45 1.75000E+02 5.00000E+01-2.50000E+01
 -1        46 1.75000E+02 5.00000E+01 2.50000E+01
 -1        47 1.25000E+02 5.00000E+01-2.50000E+01
 -1        48 7.50000E+01 5.00000E+01 2.50000E+01
 -1        49 1.25000E+02 5.00000E+01 2.50000E+01
 -1        50 1.00000E+02 5.00000E+01-7.10543E-15
 -1        51 1.50000E+02-3.55271E-14 5.00000E+01
 -1        52 5.00000E+01 7.10543E-15 5.00000E+01
 -1        53 2.50000E+01-2.50000E+01 5.00000E+01
 -1        54 2.50000E+01 2.50000E+01 5.00000E+01
 -1        55 7.50000E+01 2.50000E+01 5.00000E+01
 -1        56 1.75000E+02 2.50000E+01 5.00000E+01
 -1        57 1.75000E+02-2.50000E+01 5.00000E+01
 -1        58 1.25000E+02 2.50000E+01 5.00000E+01
 -1        59 7.50000E+01-2.50000E+01 5.00000E+01
 -1        60 1.25000E+02-2.50000E+01 5.00000E+01
 -1        61 1.00000E+02-1.42109E-14 5.00000E+01
 -1        62 1.50000E+02-5.00000E+01 3.55271E-14
 -1        63 5.00000E+01-5.00000E+01 1.42109E-14
 -1        64 2.50000E+01-5.00000E+01-2.50000E+01
 -1        65 2.50000E+01-5.00000E+01 2.50000E+01
 -1        66 7.50000E+01-5.00000E+01-2.50000E+01
 -1        67 1.75000E+02-5.00000E+01 2.50000E+01
 -1        68 1.75000E+02-5.00000E+01-2.50000E+01
 -1        69 1.25000E+02-5.00000E+01-2.50000E+01
 -1        70 7.50000E+01-5.00000E+01 2.50000E+01
 -1        71 1.25000E+02-5.00000E+01 2.50000E+01
 -1        72 1.00000E+02-5.00000E+01 2.84217E-14
 -1        73 1.35139E-30-2.14426E-15-1.64608E-14
 -1        74-2.77556E-15-2.50000E+01-2.50000E+01
 -1        75 8.32667E-15 2.50000E+01-2.50000E+01
 -1        76-8.32667E-15-2.50000E+01 2.50000E+01
 -1        77 2.77556E-15 2.50000E+01 2.50000E+01
 -1        78 2.00000E+02-4.62400E-16-4.05727E-14
 -1        79 2.00000E+02 2.50000E+01-2.50000E+01
 -1        80 2.00000E+02-2.50000E+01-2.50000E+01
 -1        81 2.00000E+02-2.50000E+01 2.50000E+01
 -1        82 2.00000E+02 2.50000E+01 2.50000E+01
 -1        83 1.50000E+02 2.50000E+01 2.50000E+01
 -1        84 1.25000E+02-2.48690E-14 2.50000E+01
 -1        85 1.50000E+02 2.50000E+01-2.50000E+01
 -1        86 1.25000E+02-2.50000E+01 2.84217E-14
 -1        87 1.50000E+02-4.26326E-14 1.77636E-14
 -1        88 1.00000E+02-2.13163E-14 0.00000E+00
 -1        89 7.50000E+01-1.77636E-14-2.50000E+01
 -1        90 1.00000E+02-2.50000E+01-2.50000E+01
 -1        91 5.00000E+01-1.06581E-14 3.55271E-15
 -1        92 5.00000E+01 2.50000E+01-2.50000E+01
 -1        93 5.00000E+01-2.50000E+01-2.50000E+01
 -1        94 1.50000E+02-2.50000E+01-2.50000E+01
 -1        95 1.50000E+02-2.50000E+01 2.50000E+01
 -1        96 7.50000E+01 2.50000E+01-3.55271E-15
 -1        97 5.00000E+01 2.50000E+01 2.50000E+01
 -1        98 1.00000E+02 2.50000E+01 2.50000E+01
 -1        99 5.00000E+01-2.50000E+01 2.50000E+01
 -1       100 2.50000E+01 2.50000E+01-1.17831E-14
 -1       101 2.50000E+01-2.50000E+01-1.12497E-15
 -1       102 2.50000E+01-4.62485E-15-2.50000E+01
 -1       103 1.75000E+02 2.50000E+01-2.73918E-14
 -1       104 1.75000E+02-1.79948E-14 2.50000E+01
 -1       105 1.75000E+02-2.51002E-14-2.50000E+01
 -1       106 2.50000E+01 2.48058E-15 2.50000E+01
 -1       107 1.75000E+02-2.50000E+01-2.52280E-15
 -3
    3C                            44                                     1
 -1        57    6    0    1
 -2        22        40        51        29        84        83        60        86        85        87
 -1        58    6    0    1
 -2        12        40        63        29        47        88        89        38        85        90
 -1        59    6    0    1
 -2        63        40        22        29        88        84        70        90        85        86
 -1        60    6    0    1
 -2        41        12        63        30        44        89        91        92        37        93
 -1        61    6    0    1
 -2        22        29        51        62        86        87        60        71        94        95
 -1        62    6    0    1
 -2        41        52        12        17        97        96        44        48        55        50
 -1        63    6    0    1
 -2        12        52        40        17        96        98        47        50        55        49
 -1        64    6    0    1
 -2        63        29        22        62        90        86        70        72        94        71
 -1        65    6    0    1
 -2        63         9        29        62        66        36        90        72        69        94
 -1        66    6    0    1
 -2        40        51        52        22        83        61        98        84        60        59
 -1        67    6    0    1
 -2        40        52        51        17        98        61        83        49        55        58
 -1        68    6    0    1
 -2        52        40        22        63        98        84        59        99        88        70
 -1        69    6    0    1
 -2        63        52        12        41        99        96        89        91        97        44
 -1        70    6    0    1
 -2        63         9        12        29        66        39        89        90        36        38
 -1        71    6    0    1
 -2        63        52        40        12        99        98        88        89        96        47
 -1        72    6    0    1
 -2        63        12         9        30        89        39        66        93        37        33
 -1        73    6    0    1
 -2        63        41        30        73        91        92        93       101       100       102
 -1        74    6    0    1
 -2        78        51        40        29       104        83       103       105        87        85
 -1        75    6    0    1
 -2        73        63        41        52       101        91       100       106        99        97
 -1        76    6    0    1
 -2        30         3         1        73        31        15        32       102        75        74
 -1        77    6    0    1
 -2         3        30        12        41        31        37        13        43        92        44
 -1        78    6    0    1
 -2         3        73        41         5        75       100        43        20        77        42
 -1        79    6    0    1
 -2        51        29        78        62        87       105       104        95        94       107
 -1        80    6    0    1
 -2         4        40        12        29        45        47        14        35        85        38
 -1        81    6    0    1
 -2        78        29         4         2       105        35        79        80        34        16
 -1        82    6    0    1
 -2         6        78        40         4        82       103        46        21        79        45
 -1        83    6    0    1
 -2        30        41         3        73        92        43        31       102       100        75
 -1        84    6    0    1
 -2        40         4        78        29        45        79       103        85        35       105
 -1        85    6    0    1
 -2         8        62        78         2        67       107        81        28        68        80
 -1        86    6    0    1
 -2        73         1        63         7        74        64       101        76        27        65
 -1        87    6    0    1
 -2         6         8        51        78        26        57        56        82        81       104
 -1        88    6    0    1
 -2         1        30        63         9        32        93        64        10        33        66
 -1        89    6    0    1
 -2        73        52         5         7       106        54        77        76        53        25
 -1        90    6    0    1
 -2        52        41         5        17        97        42        54        55        48        18
 -1        91    6    0    1
 -2         6        51        17        40        56        58        19        46        83        49
 -1        92    6    0    1
 -2        29        62         9         2        94        69        36        34        68        11
 -1        93    6    0    1
 -2        41         5        73        52        42        77       100        97        54       106
 -1        94    6    0    1
 -2        78        62        29         2       107        94       105        80        68        34
 -1        95    6    0    1
 -2        51        40         6        78        83        46        56       104       103        82
 -1        96    6    0    1
 -2        30         1        63        73        32        64        93       102        74       101
 -1        97    6    0    1
 -2        22        51         8        62        60        57        24        71        95        67
 -1        98    6    0    1
 -2         7        63        52        22        65        99        53        23        70        59
 -1        99    6    0    1
 -2        78         8        51        62        81        57       104       107        67        95
 -1       100    6    0    1
 -2        63        52        73         7        99       106       101        65        53        76
 -3
    1PSTEP                         1           1           1          
  100CL  101 1.000000000         107                     0    1           1
 -4  DISP        4    1
 -5  D1          1    2    1    0
 -5  D2          1    2    2    0
 -5  D3          1    2    3    0
 -5  ALL         1    2    0    0    1ALL
 -1         1 0.00000E+00 0.00000E+00 0.00000E+00
 -1         2-9.96575E-04 2.25148E-06-3.79645E-03
 -1         3 0.00000E+00 0.00000E+00 0.00000E+00
 -1         4-1.00491E-03 6.17059E-06-3.78981E-03
 -1         5 0.00000E+00 0.00000E+00 0.00000E+00
 -1         6 1.10164E-03 8.73231E-06-3.86435E-03
 -1         7 0.00000E+00 0.00000E+00 0.00000E+00
 -1         8 1.09078E-03-3.66326E-05-3.86506E-03
 -1         9-8.66710E-04-7.13179E-05-1.58176E-03
 -1        10-5.67272E-04-1.51257E-04-6.29019E-04
 -1        11-9.86937E-04-2.79729E-05-2.69186E-03
 -1        12-8.36310E-04 5.96480E-05-1.58840E-03
 -1        13-5.52820E-04 1.46565E-04-6.28147E-04
 -1        14-9.91309E-04 2.98481E-05-2.68548E-03
 -1        15 0.00000E+00 0.00000E+00 0.00000E+00
 -1        16-1.02192E-03 3.77467E-06-3.78690E-03
 -1        17 9.10807E-04-4.81751E-05-1.66238E-03
 -1        18 5.81228E-04-1.17196E-04-6.93850E-04
 -1        19 1.06685E-03-8.50014E-06-2.75394E-03
 -1        20 0.00000E+00 0.00000E+00 0.00000E+00
 -1        21 4.59751E-05 7.79998E-06-3.79672E-03
 -1        22 8.95211E-04 4.03293E-05-1.65881E-03
 -1        23 5.83884E-04 1.19373E-04-6.88221E-04
 -1        24 1.04970E-03-6.83044E-06-2.76176E-03
 -1        25 0.00000E+00 0.00000E+00 0.00000E+00
 -1        26 1.11376E-03-1.20870E-05-3.85728E-03
 -1        27 0.00000E+00 0.00000E+00 0.00000E+00
 -1        28 4.56127E-05-1.70800E-05-3.80207E-03
 -1        29-9.89397E-04 2.05115E-06-2.71110E-03
 -1        30-5.70723E-04 2.01458E-06-6.78120E-04
 -1        31-2.86558E-04 4.21849E-05-3.13581E-04
 -1        32-2.89228E-04-3.98364E-05-3.13423E-04
 -1        33-7.59323E-04-6.02677E-05-1.10695E-03
 -1        34-1.00630E-03-6.65579E-06-3.25170E-03
 -1        35-1.01172E-03 1.40372E-05-3.24776E-03
 -1        36-9.47201E-04-2.77295E-05-2.14452E-03
 -1        37-7.39094E-04 5.50773E-05-1.10579E-03
 -1        38-9.41535E-04 1.68142E-05-2.14807E-03
 -1        39-8.75158E-04-1.15591E-05-1.61864E-03
 -1        40 3.02606E-05 1.31613E-05-2.69397E-03
 -1        41 2.09793E-06 1.26723E-05-5.55981E-04
 -1        42 1.01544E-04-4.30423E-05-1.98735E-04
 -1        43-1.03668E-04 5.98843E-05-1.80785E-04
 -1        44-3.24224E-04 5.83278E-05-1.04112E-03
 -1        45-4.73992E-04 1.14231E-05-3.24594E-03
 -1        46 5.53792E-04 6.16830E-06-3.28252E-03
 -1        47-4.54802E-04 3.59468E-05-2.11272E-03
 -1        48 3.64492E-04-4.42760E-05-1.07911E-03
 -1        49 5.10553E-04-1.66347E-05-2.14562E-03
 -1        50 1.29142E-05 4.26512E-06-1.55769E-03
 -1        51 1.06215E-03-1.16661E-05-2.76886E-03
 -1        52 5.86775E-04-3.83558E-07-7.34882E-04
 -1        53 3.00006E-04 2.98935E-05-3.59604E-04
 -1        54 2.97786E-04-3.18612E-05-3.59149E-04
 -1        55 7.72563E-04-3.77449E-05-1.18161E-03
 -1        56 1.09361E-03-8.06774E-06-3.31761E-03
 -1        57 1.08822E-03-1.61701E-05-3.31813E-03
 -1        58 1.01808E-03-1.67394E-05-2.21051E-03
 -1        59 7.78933E-04 4.40296E-05-1.17975E-03
 -1        60 9.94255E-04 7.13109E-06-2.21463E-03
 -1        61 9.16222E-04 3.09966E-06-1.69225E-03
 -1        62 3.15313E-05-1.63449E-05-2.69643E-03
 -1        63 5.01195E-06-9.15318E-06-5.45861E-04
 -1        64-1.04628E-04-5.98285E-05-1.76057E-04
 -1        65 1.02687E-04 4.44348E-05-1.95031E-04
 -1        66-3.42965E-04-5.45629E-05-1.04249E-03
 -1        67 5.48152E-04-2.23658E-05-3.28595E-03
 -1        68-4.69413E-04-1.28032E-05-3.25301E-03
 -1        69-4.34142E-04-3.42855E-05-2.11579E-03
 -1        70 3.74221E-04 2.72565E-05-1.07300E-03
 -1        71 4.89791E-04 3.31812E-06-2.15654E-03
 -1        72 6.79549E-06-1.02817E-05-1.56977E-03
 -1        73 0.00000E+00 0.00000E+00 0.00000E+00
 -1        74 0.00000E+00 0.00000E+00 0.00000E+00
 -1        75 0.00000E+00 0.00000E+00 0.00000E+00
 -1        76 0.00000E+00 0.00000E+00 0.00000E+00
 -1        77 0.00000E+00 0.00000E+00 0.00000E+00
 -1        78 4.42770E-05-4.67583E-06-3.80246E-03
 -1        79-4.80994E-04 1.26360E-06-3.79009E-03
 -1        80-4.77832E-04-1.08794E-06-3.79182E-03
 -1        81 5.69199E-04-2.08234E-05-3.82654E-03
 -1        82 5.72023E-04 8.65908E-07-3.82722E-03
 -1        83 5.40662E-04-7.68463E-06-2.72959E-03
 -1        84 5.05855E-04-7.06351E-06-2.17607E-03
 -1        85-4.75344E-04 1.54952E-05-2.69499E-03
 -1        86 2.05944E-05-9.33101E-06-2.13413E-03
 -1        87 3.31053E-05-5.01329E-06-2.70916E-03
 -1        88 1.73183E-05-1.33963E-06-1.59588E-03
 -1        89-3.43943E-04-3.76447E-06-1.07696E-03
 -1        90-4.04845E-04-2.53316E-05-1.58778E-03
 -1        91-7.16321E-06 2.41598E-06-5.93468E-04
 -1        92-2.44762E-04 4.28599E-05-6.08051E-04
 -1        93-2.48091E-04-3.95351E-05-6.05077E-04
 -1        94-4.68387E-04-1.24474E-05-2.69497E-03
 -1        95 5.38488E-04-1.17606E-05-2.72681E-03
 -1        96 7.44568E-06 4.29720E-06-1.06847E-03
 -1        97 2.64694E-04-3.01546E-05-6.32881E-04
 -1        98 4.52918E-04-1.81119E-05-1.62029E-03
 -1        99 2.71172E-04 2.22472E-05-6.29102E-04
 -1       100-1.25667E-07 4.36193E-06-2.18825E-04
 -1       101 7.30808E-07-3.92501E-06-2.17080E-04
 -1       102-1.13298E-04 8.74780E-07-2.24265E-04
 -1       103 3.75323E-05 2.80480E-06-3.25961E-03
 -1       104 5.63139E-04-8.43745E-06-3.28505E-03
 -1       105-4.86002E-04-2.86507E-07-3.25203E-03
 -1       106 1.15429E-04-1.05669E-06-2.42324E-04
 -1       107 3.95482E-05-1.11856E-05-3.26128E-03
 -3
    1PSTEP                         2           1           1          
  100CL  101 1.000000000         107                     0    1           1
 -4  STRESS      6    1
 -5  SXX         1    4    1    1
 -5  SYY         1    4    2    2
 -5  SZZ         1    4    3    3
 -5  SXY         1    4    1    2
 -5  SYZ         1    4    2    3
 -5  SZX         1    4    3    1
 -1         1-5.64667E-02-2.49426E-02-1.98908E-02-5.48992E-03-2.10588E-03-8.09001E-03
 -1         2 2.95976E-04 2.53310E-04 3.06869E-04 1.21208E-04-1.32101E-04 1.74768E-04
 -1         3-5.57844E-02-2.49708E-02-1.99819E-02 5.49403E-03 2.08940E-03-8.21035E-03
 -1         4 5.10904E-04 1.12620E-04 1.94794E-04-2.14365E-04-1.01745E-04 2.96539E-04
 -1         5 5.65231E-02 2.53176E-02 1.94723E-02-4.52071E-03 2.54270E-03-1.04676E-02
 -1         6-5.39480E-04-2.96596E-04-5.45659E-03 1.89719E-04 1.06876E-04 3.49761E-04
 -1         7 5.70904E-02 2.52307E-02 1.96727E-02 4.52124E-03-2.62904E-03-1.02746E-02
 -1         8-2.24868E-04-2.00192E-04-5.36039E-03-3.23123E-05-1.67880E-04 1.92556E-04
 -1         9-1.22571E-02 1.14523E-03-2.69776E-05 1.58522E-03 6.06668E-04-1.12105E-03
 -1        10-3.28131E-02-2.33878E-03-1.17532E-03 1.56852E-04 1.29239E-04-3.29674E-03
 -1        11-4.41378E-03 1.14220E-04 7.55966E-04 6.61008E-04 1.10228E-04-1.08318E-03
 -1        12-1.63780E-02 1.44552E-03 7.38142E-04-1.56815E-03-2.99344E-04-3.92184E-03
 -1        13-3.09893E-02-1.62335E-03 1.01635E-04-3.58352E-04 2.92171E-04-3.43359E-03
 -1        14-5.52029E-03 7.56255E-04 9.57039E-04-3.44192E-04 2.53364E-04-2.28364E-03
 -1        15-7.10684E-02-3.99760E-02-3.99761E-02 7.17911E-05 1.10363E-10-1.54134E-02
 -1        16 7.68493E-04 7.63798E-04 9.56928E-04-1.37023E-04-9.13289E-05 9.49998E-05
 -1        17 1.46832E-02-2.05829E-03-6.89585E-03 1.13625E-03 2.48369E-04-2.82978E-03
 -1        18 3.23999E-02 1.61783E-03-3.71020E-03 1.06656E-03 1.51424E-03-3.83539E-03
 -1        19 4.26129E-03-7.80578E-04-6.67759E-03 1.91021E-04 3.61288E-04-1.59217E-03
 -1        20-7.76631E-04-4.36856E-04-4.36848E-04 5.62367E-04 6.53729E-09-5.43477E-03
 -1        21-2.50798E-04-8.26280E-05-2.83338E-03 9.53726E-05 3.46024E-04-1.14890E-04
 -1        22 1.30309E-02-1.03387E-04-5.53917E-03-8.29199E-04 3.49850E-04-3.24081E-03
 -1        23 3.23073E-02 2.42272E-03-3.19537E-03-6.45196E-04-8.46037E-04-4.35816E-03
 -1        24 5.66770E-03 7.22457E-04-4.75302E-03-7.51030E-04-3.38460E-05-1.47444E-03
 -1        25 7.44893E-02 4.19003E-02 4.19004E-02-9.50601E-05-8.77480E-11-1.88054E-02
 -1        26-8.27914E-04-8.02302E-04-5.98757E-03 1.10111E-04-6.77175E-05 2.38671E-04
 -1        27-1.08809E-03-6.12051E-04-6.12043E-04-5.79028E-04-6.01083E-09-5.25420E-03
 -1        28-6.17912E-06-1.57133E-05-2.50531E-03 7.41410E-05-5.03424E-04-2.60267E-04
 -1        29-5.63376E-03 8.85893E-04 9.07210E-04 1.91717E-04-1.64853E-04-1.77930E-03
 -1        30-3.60554E-02-4.55768E-04 2.32851E-03 2.58486E-04 7.24417E-05-3.63076E-03
 -1        31-4.66987E-02-1.13524E-02-5.33853E-03 3.08313E-03 8.42314E-04-6.45753E-03
 -1        32-4.72541E-02-1.11857E-02-5.16744E-03-2.83854E-03-8.15870E-04-6.38889E-03
 -1        33-2.23828E-02 2.07202E-03 1.76154E-05 1.17558E-03 9.76016E-04-1.74684E-03
 -1        34-1.44963E-03 8.00169E-04 1.32706E-04 9.54244E-06-2.66685E-04-3.30200E-04
 -1        35-1.41728E-03 4.96087E-04-1.73762E-04-1.34239E-04 1.92849E-04-2.96853E-04
 -1        36-9.09723E-03-2.86393E-05 8.50244E-04 1.05237E-03-3.12736E-04-1.80044E-04
 -1        37-2.06443E-02 3.15026E-03 1.34528E-03-1.09343E-03-7.84251E-04-1.84563E-03
 -1        38-9.80081E-03 9.71103E-04 1.34143E-03 1.23086E-04 2.43360E-04-1.43496E-03
 -1        39-1.33263E-02-1.33294E-04-2.85953E-04 2.53108E-04-5.92337E-04-1.64456E-04
 -1        40-9.83936E-04 1.04300E-04-2.40016E-03 1.91754E-05 4.33067E-05-3.68195E-03
 -1        41-6.23387E-04-4.09533E-04-2.49819E-03 1.41390E-04-1.92143E-03-1.25401E-02
 -1        42 2.60715E-02 9.34735E-03 4.67555E-03-2.29709E-03 4.66546E-04-1.01764E-02
 -1        43-2.54408E-02-9.09981E-03-7.43323E-03 2.53444E-03 4.50346E-04-9.49813E-03
 -1        44-1.06232E-02 1.18579E-03-1.25948E-03-1.38583E-03-1.29242E-03-8.30246E-03
 -1        45 7.40811E-04-1.25420E-04-1.24841E-03-4.66407E-04 2.24902E-05-1.71007E-03
 -1        46-1.02350E-04 3.87552E-04-3.61881E-03 3.01628E-04 1.39787E-04-1.67175E-03
 -1        47-6.81730E-03 6.65010E-04-4.07983E-05-9.02722E-04 3.89150E-04-4.60682E-03
 -1        48 9.03159E-03-3.48249E-03-5.07727E-03 1.38485E-03-1.18318E-03-7.14326E-03
 -1        49 6.07326E-03 6.06965E-04-4.53774E-03-6.69545E-05 1.02985E-04-3.84192E-03
 -1        50-8.70384E-04 2.24377E-04-2.92520E-03-8.83002E-04 7.27569E-05-5.23414E-03
 -1        51 2.95870E-03-1.26302E-03-5.31063E-03 1.66575E-04-1.55870E-06-1.52001E-03
 -1        52 3.14442E-02 3.16360E-05-7.79008E-03 3.94530E-04 8.92219E-05-4.95916E-03
 -1        53 4.69458E-02 1.12329E-02 9.73053E-04 2.26298E-03-8.37458E-04-7.53473E-03
 -1        54 4.61994E-02 1.11030E-02 7.28871E-04-2.42506E-03 1.06638E-03-7.64765E-03
 -1        55 2.15860E-02-1.35180E-03-5.75583E-03 1.10889E-03 3.18245E-04-3.83253E-03
 -1        56 1.16611E-03-3.23387E-04-4.52631E-03 2.06496E-04 1.44374E-04-2.82782E-04
 -1        57 1.50536E-03-4.69142E-04-4.95368E-03 1.20494E-04-7.53991E-05-4.99755E-04
 -1        58 8.05512E-03-8.08276E-04-6.13013E-03 2.54429E-04 2.51995E-04-1.96286E-03
 -1        59 1.96155E-02-2.00804E-03-7.83288E-03-9.49157E-04 3.42320E-04-3.13246E-03
 -1        60 8.70240E-03 1.58303E-04-4.81957E-03-2.84299E-04 1.76628E-04-2.51823E-03
 -1        61 1.49793E-02-1.03010E-03-5.42578E-03 1.07518E-04 5.21471E-05-1.86383E-03
 -1        62 2.86417E-04-1.18889E-04-2.59316E-03-8.12660E-05-9.11016E-05-4.73000E-03
 -1        63-1.83305E-03-4.35111E-04-2.45911E-03-1.35793E-04 1.15710E-03-1.17343E-02
 -1        64-2.57016E-02-8.90339E-03-6.89672E-03-2.39331E-03-5.30147E-04-9.16216E-03
 -1        65 2.66974E-02 8.95644E-03 4.55666E-03 2.18810E-03-8.72741E-04-9.76078E-03
 -1        66-9.01604E-03 5.79271E-04-1.47576E-03 8.86681E-04 1.18648E-03-7.01606E-03
 -1        67 9.39198E-05-9.31355E-05-3.85541E-03-8.48405E-05-1.91311E-04-2.06716E-03
 -1        68-2.72993E-04-2.72280E-04-1.39626E-03 1.64351E-04-1.25181E-04-2.24546E-03
 -1        69-6.82294E-03-4.16029E-04-1.32096E-03 3.40955E-05 2.62815E-04-3.98658E-03
 -1        70 6.75848E-03-1.09774E-03-4.56084E-03-8.12538E-04 7.61550E-04-6.76936E-03
 -1        71 6.70490E-03 2.65128E-04-4.09999E-03 2.75989E-04 6.95503E-05-4.11279E-03
 -1        72 9.44663E-04 1.46060E-03-1.51800E-03-1.22119E-03 3.32243E-04-8.43421E-03
 -1        73-4.13483E-04-1.36377E-04-4.23250E-04-2.95896E-05-1.16989E-05-8.87834E-03
 -1        74-2.51143E-02-1.28042E-02-1.17476E-02-2.74962E-03-8.71015E-04-8.43741E-03
 -1        75-2.47024E-02-1.26785E-02-1.15846E-02 2.76157E-03 8.29922E-04-8.48934E-03
 -1        76 2.47248E-02 1.25035E-02 1.10895E-02 2.17223E-03-9.93550E-04-9.81246E-03
 -1        77 2.44925E-02 1.24863E-02 1.10202E-02-2.25436E-03 9.52406E-04-9.82563E-03
 -1        78 3.46863E-05-4.88631E-05-2.66237E-03-7.61590E-05-2.68615E-04-2.11740E-04
 -1        79 1.26471E-04 1.21430E-05-1.03173E-03 2.68586E-05-2.25144E-04-1.45166E-04
 -1        80 9.28561E-05 1.71248E-04-8.97720E-04-9.07364E-05-1.50665E-04-1.37647E-04
 -1        81-1.44887E-04-1.66659E-04-4.24425E-03 4.00993E-05-1.79244E-04-1.13172E-04
 -1        82-2.56926E-04-4.05503E-04-4.49253E-03-2.79001E-05-2.13245E-04-3.60894E-05
 -1        83-2.61117E-05-9.23559E-04-4.09826E-03 2.86164E-04 1.65284E-04-2.69792E-03
 -1        84 6.47803E-03 9.81912E-04-3.12393E-03-9.17766E-05 9.80408E-05-3.28335E-03
 -1        85-2.87774E-03 6.88210E-04-1.10674E-03-7.55564E-05 9.27924E-05-2.94859E-03
 -1        86 2.26249E-03 1.58925E-04-2.35390E-03 2.37326E-05-7.76108E-05-4.11756E-03
 -1        87-4.67086E-04 3.11845E-04-2.15813E-03-6.18178E-06-2.91516E-04-2.76064E-03
 -1        88-2.55296E-04 2.58162E-04-1.92706E-03 1.25719E-04 2.60043E-04-6.71309E-03
 -1        89-1.11510E-02-3.93301E-04-1.52274E-03-4.93192E-04 4.34228E-04-7.66991E-03
 -1        90-6.75785E-03-1.04370E-03-1.35363E-03 9.77696E-05 2.99797E-04-6.28508E-03
 -1        91-3.70517E-03-1.78797E-03-3.46816E-03 3.31147E-04-4.03961E-04-1.19292E-02
 -1        92-1.96104E-02-7.75822E-04-9.24237E-04 2.25471E-04-1.23674E-03-8.70877E-03
 -1        93-1.97610E-02-3.38197E-04-2.17170E-04 4.09121E-04 1.26145E-03-8.15848E-03
 -1        94-2.75804E-03 1.44526E-04-8.73083E-04-5.68271E-05-3.26483E-04-3.55881E-03
 -1        95 1.31841E-03-9.90812E-04-4.45456E-03 1.94010E-04-1.83055E-04-3.04275E-03
 -1        96 1.46071E-03-1.31133E-03-3.28143E-03 8.68352E-05 8.58916E-05-6.64627E-03
 -1        97 1.94741E-02 9.79811E-04-3.50204E-03 3.39531E-04-1.30961E-03-9.04842E-03
 -1        98 9.43136E-03-1.43931E-03-4.97939E-03 6.22989E-04-6.60276E-06-4.24662E-03
 -1        99 1.78629E-02 8.60526E-04-4.30325E-03-2.50892E-04 7.14135E-04-8.51472E-03
 -1       100-3.62350E-04 6.80710E-06-1.28445E-03 1.38972E-04-1.18751E-03-1.12220E-02
 -1       101-1.76621E-04-4.53203E-05-1.23101E-03-1.05485E-04 8.70934E-04-1.08981E-02
 -1       102-1.73303E-02 1.34333E-04 1.34470E-03 1.10636E-04-2.91264E-05-6.67129E-03
 -1       103 1.74789E-04 6.26845E-05-2.65101E-03-9.49298E-05-2.66585E-04-1.85477E-03
 -1       104 1.03196E-03-7.55812E-04-4.10847E-03 3.91556E-05-2.33711E-04-9.44774E-04
 -1       105-9.22648E-04 1.30077E-03-4.67447E-04-1.51743E-04-1.77410E-04-8.72355E-04
 -1       106 1.73560E-02 2.62087E-04-4.82009E-03-2.10682E-04 9.19512E-05-6.84424E-03
 -1       107-5.67708E-05-9.55975E-05-2.57822E-03 6.82736E-06-1.17654E-04-2.17548E-03
 -3
    1PSTEP                         3           1           1          
  100CL  101 1.000000000         107                     0    1           1
 -4  TOSTRAIN    6    1
 -5  EXX         1    4    1    1
 -5  EYY         1    4    2    2
 -5  EZZ         1    4    3    3
 -5  EXY         1    4    1    2
 -5  EYZ         1    4    2    3
 -5  EZX         1    4    3    1
 -1         1-1.10788E-05 6.99461E-07 2.58698E-06-2.05118E-06-7.86812E-07-3.02264E-06
 -1         2 2.59099E-08 9.96848E-09 2.99798E-08 4.52866E-08-4.93565E-08 6.52979E-08
 -1         3-1.08795E-05 6.33240E-07 2.49725E-06 2.05272E-06 7.80655E-07-3.06760E-06
 -1         4 1.09955E-07-3.88547E-08-8.15245E-09-8.00925E-08-3.80147E-08 1.10795E-07
 -1         5 1.10986E-05-5.60654E-07-2.74461E-06-1.68906E-06 9.50020E-07-3.91097E-06
 -1         6 4.20787E-07 5.11535E-07-1.41637E-06 7.08842E-08 3.99318E-08 1.30680E-07
 -1         7 1.12432E-05-6.60450E-07-2.73704E-06 1.68925E-06-9.82277E-07-3.83886E-06
 -1         8 4.88170E-07 4.97390E-07-1.43059E-06-1.20727E-08-6.27243E-08 7.19439E-08
 -1         9-3.47794E-06 1.52954E-06 1.09157E-06 5.92282E-07 2.26667E-07-4.18853E-07
 -1        10-8.66703E-06 2.71897E-06 3.15367E-06 5.86041E-08 4.82871E-08-1.23175E-06
 -1        11-1.29864E-06 3.93141E-07 6.32914E-07 2.46970E-07 4.11839E-08-4.04703E-07
 -1        12-4.71541E-06 1.94392E-06 1.67962E-06-5.85903E-07-1.11843E-07-1.46530E-06
 -1        13-8.36303E-06 2.60885E-06 3.25334E-06-1.33890E-07 1.09163E-07-1.28288E-06
 -1        14-1.68601E-06 6.59072E-07 7.34091E-07-1.28599E-07 9.46635E-08-8.53229E-07
 -1        15-1.16169E-05-8.94400E-12-1.94617E-11 2.68231E-08 4.12345E-14-5.75884E-06
 -1        16 4.09427E-08 3.91886E-08 1.11347E-07-5.11956E-08-3.41229E-08 3.54944E-08
 -1        17 4.91941E-06-1.33564E-06-3.14308E-06 4.24532E-07 9.27971E-08-1.05728E-06
 -1        18 9.10800E-06-2.39298E-06-4.38367E-06 3.98495E-07 5.65761E-07-1.43300E-06
 -1        19 1.90830E-06 2.45303E-08-2.17875E-06 7.13703E-08 1.34987E-07-5.94876E-07
 -1        20-1.26950E-07-8.85238E-13 1.95737E-12 2.10115E-07 2.44251E-12-2.03057E-06
 -1        21 2.19496E-07 2.82329E-07-7.45426E-07 3.56337E-08 1.29284E-07-4.29258E-08
 -1        22 4.13798E-06-7.69347E-07-2.80030E-06-3.09811E-07 1.30713E-07-1.21085E-06
 -1        23 8.95204E-06-2.21361E-06-4.31268E-06-2.41062E-07-3.16102E-07-1.62832E-06
 -1        24 1.95569E-06 1.08014E-07-1.93777E-06-2.80604E-07-1.26458E-08-5.50891E-07
 -1        25 1.21761E-05 6.73404E-12 2.55279E-11-3.55170E-08-3.27850E-14-7.02620E-06
 -1        26 4.44078E-07 4.53647E-07-1.48371E-06 4.11404E-08-2.53011E-08 8.91739E-08