    1C
    1U simple_canti.inp                                                 
    1UUSER                                                              
    1UDATE              02.october.2025                                 
    1UTIME              17:09:57                                        
    1UHOST                                                              
    1UPGM               CalculiX                                        
    1UVERSION           Version 2.22                             
    1UCOMPILETIME       Mon Aug  5 19:15:25 CEST 2024                    
    1UDIR                                                               
    1UDBN                                                               
    1UMAT    1MATERIALSOLID                                             
    2C                           200                                     1
 -1         1 0.00000E+00 1.60000E+02 4.00000E+01
 -1         2 0.00000E+00 6.16298E-32 4.00000E+01
 -1         3 4.00000E+01 6.16298E-32 4.00000E+01
 -1         4 4.00000E+01 1.60000E+02 4.00000E+01
 -1         5 0.00000E+00 1.60000E+02-4.93038E-31
 -1         6 4.00000E+01 1.60000E+02 0.00000E+00
 -1         7 0.00000E+00 0.00000E+00 0.00000E+00
 -1         8 4.00000E+01 0.00000E+00 0.00000E+00
 -1         9 0.00000E+00 1.20000E+02 4.00000E+01
 -1        10 0.00000E+00 8.00000E+01 4.00000E+01
 -1        11 0.00000E+00 4.00000E+01 4.00000E+01
 -1        12 0.00000E+00 1.40000E+02 4.00000E+01
 -1        13 0.00000E+00 1.00000E+02 4.00000E+01
 -1        14 0.00000E+00 6.00000E+01 4.00000E+01
 -1        15 0.00000E+00 2.00000E+01 4.00000E+01
 -1        16 2.00000E+01 6.16298E-32 4.00000E+01
 -1        17 4.00000E+01 1.20000E+02 4.00000E+01
 -1        18 4.00000E+01 8.00000E+01 4.00000E+01
 -1        19 4.00000E+01 4.00000E+01 4.00000E+01
 -1        20 4.00000E+01 1.40000E+02 4.00000E+01
 -1        21 4.00000E+01 1.00000E+02 4.00000E+01
 -1        22 4.00000E+01 6.00000E+01 4.00000E+01
 -1        23 4.00000E+01 2.00000E+01 4.00000E+01
 -1        24 2.00000E+01 1.60000E+02 4.00000E+01
 -1        25 0.00000E+00 1.60000E+02 2.00000E+01
 -1        26 4.00000E+01 1.60000E+02 2.00000E+01
 -1        27 2.00000E+01 1.60000E+02-4.93038E-31
 -1        28 0.00000E+00 4.00000E+01-1.23260E-31
 -1        29 0.00000E+00 8.00000E+01-2.46519E-31
 -1        30 0.00000E+00 1.20000E+02-3.69779E-31
 -1        31 0.00000E+00 2.00000E+01-6.16298E-32
 -1        32 0.00000E+00 6.00000E+01-1.84889E-31
 -1        33 0.00000E+00 1.00000E+02-3.08149E-31
 -1        34 0.00000E+00 1.40000E+02-4.31408E-31
 -1        35 4.00000E+01 4.00000E+01-1.23260E-31
 -1        36 4.00000E+01 8.00000E+01-2.46519E-31
 -1        37 4.00000E+01 1.20000E+02-3.69779E-31
 -1        38 4.00000E+01 2.00000E+01-6.16298E-32
 -1        39 4.00000E+01 6.00000E+01-1.84889E-31
 -1        40 4.00000E+01 1.00000E+02-3.08149E-31
 -1        41 4.00000E+01 1.40000E+02-4.31408E-31
 -1        42 2.00000E+01 0.00000E+00 0.00000E+00
 -1        43 0.00000E+00 3.08149E-32 2.00000E+01
 -1        44 4.00000E+01 3.08149E-32 2.00000E+01
 -1        45 2.00000E+01 2.00000E+01 4.00000E+01
 -1        46 2.00000E+01 1.00000E+02 4.00000E+01
 -1        47 2.00000E+01 1.40000E+02 4.00000E+01
 -1        48 2.00000E+01 6.00000E+01 4.00000E+01
 -1        49 1.00000E+01 1.50000E+02 4.00000E+01
 -1        50 3.00000E+01 1.50000E+02 4.00000E+01
 -1        51 1.00000E+01 1.30000E+02 4.00000E+01
 -1        52 3.00000E+01 1.00000E+01 4.00000E+01
 -1        53 1.00000E+01 1.00000E+01 4.00000E+01
 -1        54 1.00000E+01 3.00000E+01 4.00000E+01
 -1        55 3.00000E+01 3.00000E+01 4.00000E+01
 -1        56 3.00000E+01 1.30000E+02 4.00000E+01
 -1        57 1.00000E+01 9.00000E+01 4.00000E+01
 -1        58 1.00000E+01 1.10000E+02 4.00000E+01
 -1        59 3.00000E+01 1.10000E+02 4.00000E+01
 -1        60 2.00000E+01 1.20000E+02 4.00000E+01
 -1        61 1.00000E+01 5.00000E+01 4.00000E+01
 -1        62 1.00000E+01 7.00000E+01 4.00000E+01
 -1        63 3.00000E+01 9.00000E+01 4.00000E+01
 -1        64 2.00000E+01 8.00000E+01 4.00000E+01
 -1        65 3.00000E+01 7.00000E+01 4.00000E+01
 -1        66 2.00000E+01 4.00000E+01 4.00000E+01
 -1        67 3.00000E+01 5.00000E+01 4.00000E+01
 -1        68 2.00000E+01 1.60000E+02 2.00000E+01
 -1        69 3.00000E+01 1.60000E+02 3.00000E+01
 -1        70 1.00000E+01 1.60000E+02 3.00000E+01
 -1        71 1.00000E+01 1.60000E+02 1.00000E+01
 -1        72 3.00000E+01 1.60000E+02 1.00000E+01
 -1        73 2.00000E+01 2.00000E+01-6.16298E-32
 -1        74 2.00000E+01 6.00000E+01-1.84889E-31
 -1        75 2.00000E+01 1.00000E+02-3.08149E-31
 -1        76 2.00000E+01 1.40000E+02-4.31408E-31
 -1        77 3.00000E+01 1.50000E+02-4.62223E-31
 -1        78 1.00000E+01 1.50000E+02-4.62223E-31
 -1        79 1.00000E+01 1.30000E+02-4.00593E-31
 -1        80 3.00000E+01 1.30000E+02-4.00593E-31
 -1        81 1.00000E+01 1.00000E+01-3.08149E-32
 -1        82 3.00000E+01 1.00000E+01-3.08149E-32
 -1        83 1.00000E+01 3.00000E+01-9.24446E-32
 -1        84 3.00000E+01 3.00000E+01-9.24446E-32
 -1        85 1.00000E+01 7.00000E+01-2.15704E-31
 -1        86 1.00000E+01 5.00000E+01-1.54074E-31
 -1        87 2.00000E+01 4.00000E+01-1.23260E-31
 -1        88 3.00000E+01 5.00000E+01-1.54074E-31
 -1        89 1.00000E+01 1.10000E+02-3.38964E-31
 -1        90 1.00000E+01 9.00000E+01-2.77334E-31
 -1        91 3.00000E+01 7.00000E+01-2.15704E-31
 -1        92 2.00000E+01 8.00000E+01-2.46519E-31
 -1        93 3.00000E+01 9.00000E+01-2.77334E-31
 -1        94 3.00000E+01 1.10000E+02-3.38964E-31
 -1        95 2.00000E+01 1.20000E+02-3.69779E-31
 -1        96 2.00000E+01 3.08149E-32 2.00000E+01
 -1        97 1.00000E+01 4.62223E-32 3.00000E+01
 -1        98 3.00000E+01 4.62223E-32 3.00000E+01
 -1        99 1.00000E+01 1.54074E-32 1.00000E+01
 -1       100 3.00000E+01 1.54074E-32 1.00000E+01
 -1       101 4.00000E+01 1.40000E+02 2.00000E+01
 -1       102 4.00000E+01 2.00000E+01 2.00000E+01
 -1       103 4.00000E+01 1.00000E+02 2.00000E+01
 -1       104 4.00000E+01 6.00000E+01 2.00000E+01
 -1       105 4.00000E+01 1.00000E+01 1.00000E+01
 -1       106 4.00000E+01 1.00000E+01 3.00000E+01
 -1       107 4.00000E+01 3.00000E+01 3.00000E+01
 -1       108 4.00000E+01 1.50000E+02 3.00000E+01
 -1       109 4.00000E+01 1.50000E+02 1.00000E+01
 -1       110 4.00000E+01 1.30000E+02 3.00000E+01
 -1       111 4.00000E+01 1.30000E+02 1.00000E+01
 -1       112 4.00000E+01 3.00000E+01 1.00000E+01
 -1       113 4.00000E+01 9.00000E+01 3.00000E+01
 -1       114 4.00000E+01 1.10000E+02 3.00000E+01
 -1       115 4.00000E+01 1.20000E+02 2.00000E+01
 -1       116 4.00000E+01 1.10000E+02 1.00000E+01
 -1       117 4.00000E+01 5.00000E+01 3.00000E+01
 -1       118 4.00000E+01 7.00000E+01 3.00000E+01
 -1       119 4.00000E+01 9.00000E+01 1.00000E+01
 -1       120 4.00000E+01 8.00000E+01 2.00000E+01
 -1       121 4.00000E+01 7.00000E+01 1.00000E+01
 -1       122 4.00000E+01 4.00000E+01 2.00000E+01
 -1       123 4.00000E+01 5.00000E+01 1.00000E+01
 -1       124 0.00000E+00 1.40000E+02 2.00000E+01
 -1       125 0.00000E+00 2.00000E+01 2.00000E+01
 -1       126 0.00000E+00 1.00000E+02 2.00000E+01
 -1       127 0.00000E+00 6.00000E+01 2.00000E+01
 -1       128 0.00000E+00 1.50000E+02 1.00000E+01
 -1       129 0.00000E+00 1.50000E+02 3.00000E+01
 -1       130 0.00000E+00 1.30000E+02 3.00000E+01
 -1       131 0.00000E+00 1.00000E+01 3.00000E+01
 -1       132 0.00000E+00 1.00000E+01 1.00000E+01
 -1       133 0.00000E+00 3.00000E+01 3.00000E+01
 -1       134 0.00000E+00 1.30000E+02 1.00000E+01
 -1       135 0.00000E+00 3.00000E+01 1.00000E+01
 -1       136 0.00000E+00 1.10000E+02 3.00000E+01
 -1       137 0.00000E+00 9.00000E+01 3.00000E+01
 -1       138 0.00000E+00 1.20000E+02 2.00000E+01
 -1       139 0.00000E+00 1.10000E+02 1.00000E+01
 -1       140 0.00000E+00 7.00000E+01 3.00000E+01
 -1       141 0.00000E+00 5.00000E+01 3.00000E+01
 -1       142 0.00000E+00 8.00000E+01 2.00000E+01
 -1       143 0.00000E+00 9.00000E+01 1.00000E+01
 -1       144 0.00000E+00 7.00000E+01 1.00000E+01
 -1       145 0.00000E+00 4.00000E+01 2.00000E+01
 -1       146 0.00000E+00 5.00000E+01 1.00000E+01
 -1       147 2.00000E+01 8.00000E+01 2.00000E+01
 -1       148 2.00000E+01 1.30000E+02 3.00000E+01
 -1       149 2.00000E+01 1.40000E+02 2.00000E+01
 -1       150 3.00000E+01 1.40000E+02 1.00000E+01
 -1       151 1.00000E+01 1.40000E+02 1.00000E+01
 -1       152 1.00000E+01 1.30000E+02 2.00000E+01
 -1       153 1.00000E+01 6.00000E+01 3.00000E+01
 -1       154 2.00000E+01 5.00000E+01 3.00000E+01
 -1       155 3.00000E+01 6.00000E+01 3.00000E+01
 -1       156 2.00000E+01 6.00000E+01 2.00000E+01
 -1       157 2.00000E+01 1.00000E+02 2.00000E+01
 -1       158 1.00000E+01 1.10000E+02 2.00000E+01
 -1       159 1.00000E+01 1.00000E+02 1.00000E+01
 -1       160 1.00000E+01 1.00000E+02 3.00000E+01
 -1       161 1.00000E+01 2.00000E+01 1.00000E+01
 -1       162 2.00000E+01 2.00000E+01 2.00000E+01
 -1       163 2.00000E+01 3.00000E+01 1.00000E+01
 -1       164 3.00000E+01 2.00000E+01 1.00000E+01
 -1       165 1.00000E+01 2.00000E+01 3.00000E+01
 -1       166 3.00000E+01 2.00000E+01 3.00000E+01
 -1       167 2.00000E+01 3.00000E+01 3.00000E+01
 -1       168 3.00000E+01 1.00000E+02 3.00000E+01
 -1       169 2.00000E+01 1.10000E+02 3.00000E+01
 -1       170 3.00000E+01 1.00000E+02 1.00000E+01
 -1       171 1.00000E+01 1.40000E+02 3.00000E+01
 -1       172 3.00000E+01 1.40000E+02 3.00000E+01
 -1       173 1.00000E+01 5.00000E+01 2.00000E+01
 -1       174 3.00000E+01 6.00000E+01 1.00000E+01
 -1       175 1.00000E+01 6.00000E+01 1.00000E+01
 -1       176 2.00000E+01 1.10000E+02 1.00000E+01
 -1       177 3.00000E+01 1.30000E+02 2.00000E+01
 -1       178 3.00000E+01 1.20000E+02 1.00000E+01
 -1       179 2.00000E+01 5.00000E+01 1.00000E+01
 -1       180 2.00000E+01 4.00000E+01 2.00000E+01
 -1       181 1.00000E+01 1.00000E+01 2.00000E+01
 -1       182 2.00000E+01 1.00000E+01 3.00000E+01
 -1       183 3.00000E+01 1.00000E+01 2.00000E+01
 -1       184 2.00000E+01 1.00000E+01 1.00000E+01
 -1       185 1.00000E+01 1.50000E+02 2.00000E+01
 -1       186 2.00000E+01 1.50000E+02 3.00000E+01
 -1       187 3.00000E+01 1.50000E+02 2.00000E+01
 -1       188 2.00000E+01 1.50000E+02 1.00000E+01
 -1       189 1.00000E+01 7.00000E+01 2.00000E+01
 -1       190 3.00000E+01 7.00000E+01 2.00000E+01
 -1       191 2.00000E+01 7.00000E+01 3.00000E+01
 -1       192 2.00000E+01 7.00000E+01 1.00000E+01
 -1       193 2.00000E+01 9.00000E+01 3.00000E+01
 -1       194 2.00000E+01 9.00000E+01 1.00000E+01
 -1       195 1.00000E+01 9.00000E+01 2.00000E+01
 -1       196 3.00000E+01 9.00000E+01 2.00000E+01
 -1       197 3.00000E+01 8.00000E+01 1.00000E+01
 -1       198 1.00000E+01 8.00000E+01 1.00000E+01
 -1       199 1.00000E+01 8.00000E+01 3.00000E+01
 -1       200 3.00000E+01 8.00000E+01 3.00000E+01
 -3
    3C                            87                                     1
 -1         1    6    0    1
 -2       101         9       124        76       148       130       149       150       152       151
 -1         2    6    0    1
 -2        11       127        48       104       141       153        61       154       156       155
 -1         3    6    0    1
 -2        75        46         9       126       157        58       158       159       160       136
 -1         4    6    0    1
 -2       125        73        28       102       161        83       135       162       164       163
 -1         5    6    0    1
 -2        45       125        11       102       165       133        54       166       162       167
 -1         6    6    0    1
 -2        46        75         9       103       157       158        58       168       170       169
 -1         7    6    0    1
 -2         9       124        47       101       130       171        51       148       149       172
 -1         8    6    0    1
 -2        11       127       104        74       141       156       154       173       175       174
 -1         9    6    0    1
 -2        30        37       103        75        95       116       176        89        94       170
 -1        10    6    0    1
 -2        17        37        76       101       115        80       177       110       111       150
 -1        11    6    0    1
 -2        30       124         9        76       134       130       138        79       151       152
 -1        12    6    0    1
 -2        75         9       103        30       158       169       170        89       138       176
 -1        13    6    0    1
 -2        11        45       102        19        54       166       167        66        55       107
 -1        14    6    0    1
 -2        75         9        30       126       158       138        89       159       136       139
 -1        15    6    0    1
 -2       102        73        28        35       164        83       163       112        84        87
 -1        16    6    0    1
 -2        11       125        28       102       133       135       145       167       162       163
 -1        17    6    0    1
 -2        76        17       101         9       177       110       150       152        60       148
 -1        18    6    0    1
 -2        46         9        17       103        58        60        59       168       169       114
 -1        19    6    0    1
 -2       103        30         9        76       176       138       169       178        79       152
 -1        20    6    0    1
 -2        19        11        48       104        66        61        67       117       154       155
 -1        21    6    0    1
 -2        17         9        47       101        60        51        56       110       148       172
 -1        22    6    0    1
 -2        76        17         9       103       177        60       152       178       114       169
 -1        23    6    0    1
 -2        37        17        76       103       115       177        80       116       114       178
 -1        24    6    0    1
 -2        37        30       103        76        95       176       116        80        79       178
 -1        25    6    0    1
 -2       104        35        28        74       123        87       179       174        88        86
 -1        26    6    0    1
 -2       127        11        28        74       141       145       146       175       173        86
 -1        27    6    0    1
 -2       104        28        11        74       179       145       154       174        86       173
 -1        28    6    0    1
 -2        11        35       102        28       180       112       167       145        87       163
 -1        29    6    0    1
 -2        11        35        19       102       180       122        66       167       112       107
 -1        30    6    0    1
 -2        11        35       104        19       180       123       154        66       122       117
 -1        31    6    0    1
 -2        35        11       104        28       180       154       123        87       145       179
 -1        32    6    0    1
 -2        96       125        45       102       181       165       182       183       162       166
 -1        33    6    0    1
 -2        73       125        96       102       161       181       184       164       162       183
 -1        34    6    0    1
 -2        47       124        68       101       171       185       186       172       149       187
 -1        35    6    0    1
 -2       124        68       101        76       185       187       149       151       188       150
 -1        36    6    0    1
 -2       127        48       104       147       153       155       156       189       191       190
 -1        37    6    0    1
 -2       104        74       127       147       174       175       156       190       192       189
 -1        38    6    0    1
 -2        46       126        75       147       160       159       157       193       195       194
 -1        39    6    0    1
 -2        75       103        46       147       170       168       157       194       196       193
 -1        40    6    0    1
 -2        17        18        46       103        21        63        59       114       113       168
 -1        41    6    0    1
 -2         2         7       125        96        43       132       131        97        99       181
 -1        42    6    0    1
 -2        37       103        75        36       116       170        94        40       119        93
 -1        43    6    0    1
 -2         7       125        73        28       132       161        81        31       135        83
 -1        44    6    0    1
 -2       126        46         9        10       160        58       136       137        57        13
 -1        45    6    0    1
 -2        30        29        75       126        33        90        89       139       143       159
 -1        46    6    0    1
 -2         5       124        68         1       128       185        71        25       129        70
 -1        47    6    0    1
 -2        47         1       124         9        49       129       171        51        12       130
 -1        48    6    0    1
 -2         2       125        11        45       131       133        15        53       165        54
 -1        49    6    0    1
 -2        18        19        48       104        22        67        65       118       117       155
 -1        50    6    0    1
 -2        10        11       127        48        14       141       140        62        61       153
 -1        51    6    0    1
 -2        96        45         2         3       182        53        97        98        52        16
 -1        52    6    0    1
 -2         7        73        96         8        81       184        99        42        82       100
 -1        53    6    0    1
 -2       127        28        29        74       146        32       144       175        86        85
 -1        54    6    0    1
 -2         3       102        45        19       106       166        52        23       107        55
 -1        55    6    0    1
 -2        68         1        47         4        70        49       186        69        24        50
 -1        56    6    0    1
 -2         4        17        47       101        20        56        50       108       110       172
 -1        57    6    0    1
 -2        68         4       101         6        69       108       187        72        26       109
 -1        58    6    0    1
 -2       124        30         5        76       134        34       128       151        79        78
 -1        59    6    0    1
 -2        68         5         6        76        71        27        72       188        78        77
 -1        60    6    0    1
 -2        76         6       101        37        77       109       150        80        41       111
 -1        61    6    0    1
 -2       104        36        35        74       121        39       123       174        91        88
 -1        62    6    0    1
 -2        96       102         3         8       183       106        98       100       105        44
 -1        63    6    0    1
 -2        35       102        73         8       112       164        84        38       105        82
 -1        64    6    0    1
 -2        36        75        29       147        93        90        92       197       194       198
 -1        65    6    0    1
 -2        10       127        29       147       140       144       142       199       189       198
 -1        66    6    0    1
 -2        18        48        10       147        65        62        64       200       191       199
 -1        67    6    0    1
 -2        36       104        18       147       121       118       120       197       190       200
 -1        68    6    0    1
 -2        29        74        36       147        85        91        92       198       192       197
 -1        69    6    0    1
 -2        29       126        10       147       143       137       142       198       195       199
 -1        70    6    0    1
 -2        10        46        18       147        57        63        64       199       193       200
 -1        71    6    0    1
 -2        18       103        36       147       113       119       120       200       196       197
 -1        72    6    0    1
 -2         1       124        68        47       129       185        70        49       171       186
 -1        73    6    0    1
 -2       102        96        73         8       183       184       164       105       100        82
 -1        74    6    0    1
 -2        45         2       125        96        53       131       165       182        97       181
 -1        75    6    0    1
 -2        73       125         7        96       161       132        81       184       181        99
 -1        76    6    0    1
 -2        45        96       102         3       182       183       166        52        98       106
 -1        77    6    0    1
 -2        47        68         4       101       186        69        50       172       187       108
 -1        78    6    0    1
 -2        68       124         5        76       185       128        71       188       151        78
 -1        79    6    0    1
 -2         6       101        68        76       109       187        72        77       150       188
 -1        80    6    0    1
 -2       127        10        48       147       140        62       153       189       199       191
 -1        81    6    0    1
 -2       104        48        18       147       155        65       118       190       191       200
 -1        82    6    0    1
 -2        29       127        74       147       144       175        85       198       189       192
 -1        83    6    0    1
 -2        36        74       104       147        91       174       121       197       192       190
 -1        84    6    0    1
 -2        29        75       126       147        90       159       143       198       194       195
 -1        85    6    0    1
 -2        36       103        75       147       119       170        93       197       196       194
 -1        86    6    0    1
 -2        46        10       126       147        57       137       160       193       199       195
 -1        87    6    0    1
 -2        18        46       103       147        63       168       113       200       193       196
 -3
    1PSTEP                         1           1           1          
  100CL  101 1.000000000         200                     0    1           1
 -4  DISP        4    1
 -5  D1          1    2    1    0
 -5  D2          1    2    2    0
 -5  D3          1    2    3    0
 -5  ALL         1    2    0    0    1ALL
 -1         1 0.00000E+00 0.00000E+00 0.00000E+00
 -1         2-4.66220E-05-4.79238E-03-2.93240E-02
 -1         3 3.29990E-05-4.79372E-03-2.93286E-02
 -1         4 0.00000E+00 0.00000E+00 0.00000E+00
 -1         5 0.00000E+00 0.00000E+00 0.00000E+00
 -1         6 0.00000E+00 0.00000E+00 0.00000E+00
 -1         7-1.32614E-05 4.67301E-03-2.91917E-02
 -1         8-3.98706E-06 4.67355E-03-2.91945E-02
 -1         9 3.19842E-04-2.56476E-03-3.38537E-03
 -1        10 1.38194E-04-4.02589E-03-1.06751E-02
 -1        11 3.29265E-05-4.64196E-03-1.97366E-02
 -1        12 4.28089E-04-1.40400E-03-1.12118E-03
 -1        13 2.47116E-04-3.43333E-03-6.66276E-03
 -1        14 7.11942E-05-4.43004E-03-1.50676E-02
 -1        15-7.55533E-06-4.74823E-03-2.44762E-02
 -1        16-6.63910E-06-4.79342E-03-2.92404E-02
 -1        17-3.19329E-04-2.51884E-03-3.39462E-03
 -1        18-1.51183E-04-4.03072E-03-1.06815E-02
 -1        19-3.35059E-05-4.64651E-03-1.97536E-02
 -1        20-4.31200E-04-1.40333E-03-1.13288E-03
 -1        21-2.55927E-04-3.43977E-03-6.66560E-03
 -1        22-8.25091E-05-4.43424E-03-1.50748E-02
 -1        23-2.29968E-06-4.75100E-03-2.44810E-02
 -1        24 0.00000E+00 0.00000E+00 0.00000E+00
 -1        25 0.00000E+00 0.00000E+00 0.00000E+00
 -1        26 0.00000E+00 0.00000E+00 0.00000E+00
 -1        27 0.00000E+00 0.00000E+00 0.00000E+00
 -1        28-6.46488E-05 4.59289E-03-1.96790E-02
 -1        29-1.81890E-04 3.98245E-03-1.06040E-02
 -1        30-3.41868E-04 2.54362E-03-3.34458E-03
 -1        31-2.77964E-05 4.66581E-03-2.44343E-02
 -1        32-1.03288E-04 4.37804E-03-1.50241E-02
 -1        33-2.79712E-04 3.40761E-03-6.61173E-03
 -1        34-4.33913E-04 1.40325E-03-1.08812E-03
 -1        35 3.84482E-05 4.55873E-03-1.96908E-02
 -1        36 1.64575E-04 3.98680E-03-1.06115E-02
 -1        37 3.39376E-04 2.52694E-03-3.35446E-03
 -1        38 8.46498E-06 4.66158E-03-2.44361E-02
 -1        39 8.50792E-05 4.37739E-03-1.50291E-02
 -1        40 2.61694E-04 3.41743E-03-6.61724E-03
 -1        41 4.29111E-04 1.39487E-03-1.08221E-03
 -1        42-8.92894E-06 4.68547E-03-2.91924E-02
 -1        43-1.40392E-05-4.63286E-05-2.92074E-02
 -1        44-1.42528E-06-4.57716E-05-2.92104E-02
 -1        45-5.94264E-06-4.76053E-03-2.44836E-02
 -1        46-4.25991E-06-3.43621E-03-6.78952E-03
 -1        47 1.42086E-06-1.40846E-03-1.30809E-03
 -1        48-6.54954E-06-4.44886E-03-1.51178E-02
 -1        49 1.15893E-04-6.59535E-04-5.61702E-04
 -1        50-1.14408E-04-6.61100E-04-5.65808E-04
 -1        51 1.95826E-04-2.02981E-03-2.24231E-03
 -1        52 3.15091E-06-4.77861E-03-2.68646E-02
 -1        53-1.62260E-05-4.77786E-03-2.68618E-02
 -1        54 6.72773E-06-4.70965E-03-2.20989E-02
 -1        55-1.55245E-05-4.71473E-03-2.20965E-02
 -1        56-2.08248E-04-2.02101E-03-2.23795E-03
 -1        57 9.88197E-05-3.78108E-03-8.65508E-03
 -1        58 1.48852E-04-3.02224E-03-5.02875E-03
 -1        59-1.45360E-04-3.04001E-03-5.03623E-03
 -1        60 6.18520E-06-2.56036E-03-3.54698E-03
 -1        61 2.08878E-05-4.56579E-03-1.73932E-02
 -1        62 4.81342E-05-4.27580E-03-1.28533E-02
 -1        63-1.13161E-04-3.78617E-03-8.65668E-03
 -1        64-6.14654E-06-4.07856E-03-1.07089E-02
 -1        65-6.01551E-05-4.27883E-03-1.28585E-02
 -1        66-8.09256E-06-4.64786E-03-1.97399E-02
 -1        67-3.40304E-05-4.56843E-03-1.73865E-02
 -1        68 0.00000E+00 0.00000E+00 0.00000E+00
 -1        69 0.00000E+00 0.00000E+00 0.00000E+00
 -1        70 0.00000E+00 0.00000E+00 0.00000E+00
 -1        71 0.00000E+00 0.00000E+00 0.00000E+00
 -1        72 0.00000E+00 0.00000E+00 0.00000E+00
 -1        73-1.05809E-05 4.67335E-03-2.44415E-02
 -1        74-9.81005E-06 4.38929E-03-1.50773E-02
 -1        75-6.69042E-06 3.41631E-03-6.75078E-03
 -1        76 1.41664E-05 1.38294E-03-1.24834E-03
 -1        77 1.17423E-04 6.49465E-04-5.41134E-04
 -1        78-1.10951E-04 6.47553E-04-5.41016E-04
 -1        79-1.98572E-04 2.00282E-03-2.20939E-03
 -1        80 1.92258E-04 1.98480E-03-2.21887E-03
 -1        81-1.42369E-05 4.68017E-03-2.68192E-02
 -1        82-3.81430E-06 4.68040E-03-2.68197E-02
 -1        83-3.08771E-05 4.64272E-03-2.20609E-02
 -1        84 4.72842E-06 4.63360E-03-2.20681E-02
 -1        85-7.27107E-05 4.22454E-03-1.28204E-02
 -1        86-3.90512E-05 4.50017E-03-1.73621E-02
 -1        87-1.07060E-05 4.57874E-03-1.97046E-02
 -1        88 2.61542E-05 4.50190E-03-1.73561E-02
 -1        89-1.68204E-04 2.99970E-03-4.98152E-03
 -1        90-1.22636E-04 3.74754E-03-8.62391E-03
 -1        91 5.35518E-05 4.22705E-03-1.28260E-02
 -1        92-8.89834E-06 4.03474E-03-1.06867E-02
 -1        93 1.07422E-04 3.75170E-03-8.62477E-03
 -1        94 1.49020E-04 3.02686E-03-4.99470E-03
 -1        95-1.75853E-05 2.54695E-03-3.52726E-03
 -1        96-8.07368E-06-4.38640E-05-2.91973E-02
 -1        97-1.14594E-05-2.40992E-03-2.92287E-02
 -1        98-3.44202E-06-2.41004E-03-2.92309E-02
 -1        99-9.06592E-06 2.31408E-03-2.91933E-02
 -1       100-7.82088E-06 2.31360E-03-2.91947E-02
 -1       101-6.29246E-06-3.46640E-06-8.41578E-04
 -1       102-5.16667E-06-3.61979E-05-2.44379E-02
 -1       103-1.23278E-05-2.31764E-05-6.49900E-03
 -1       104-1.11291E-06-3.09771E-05-1.49863E-02
 -1       105-3.18213E-06 2.31083E-03-2.68211E-02
 -1       106 1.82003E-06-2.39333E-03-2.68600E-02
 -1       107-1.60725E-05-2.36919E-03-2.20662E-02
 -1       108-1.50077E-04-2.78509E-04-1.93733E-04
 -1       109 1.49189E-04 2.76406E-04-1.85263E-04
 -1       110-1.89751E-04-9.71814E-04-1.94923E-03
 -1       111 2.05288E-04 9.61115E-04-1.92902E-03
 -1       112 1.13963E-05 2.29140E-03-2.20459E-02
 -1       113-1.02082E-04-1.86794E-03-8.49244E-03
 -1       114-1.61300E-04-1.50380E-03-4.77923E-03
 -1       115 7.58440E-06-2.30040E-05-3.17261E-03
 -1       116 1.62458E-04 1.47432E-03-4.74886E-03
 -1       117-2.97369E-05-2.28377E-03-1.73369E-02
 -1       118-7.00957E-05-2.12657E-03-1.27555E-02
 -1       119 9.62719E-05 1.82738E-03-8.46710E-03
 -1       120-3.72993E-06-2.38204E-05-1.05339E-02
 -1       121 6.64143E-05 2.07251E-03-1.27295E-02
 -1       122-3.17871E-06-2.73101E-05-1.96731E-02
 -1       123 2.40310E-05 2.21891E-03-1.73172E-02
 -1       124-3.17919E-06-3.56465E-06-8.38843E-04
 -1       125-1.28078E-05-4.01711E-05-2.44346E-02
 -1       126-1.16098E-05-1.68418E-05-6.49862E-03
 -1       127-1.13575E-05-3.04394E-05-1.49823E-02
 -1       128-1.50319E-04 2.79125E-04-1.85298E-04
 -1       129 1.47325E-04-2.77727E-04-1.92329E-04
 -1       130 1.83754E-04-9.67759E-04-1.93547E-03
 -1       131-1.64480E-05-2.39395E-03-2.68562E-02
 -1       132-1.46022E-05 2.30985E-03-2.68185E-02
 -1       133 5.41783E-07-2.36673E-03-2.20611E-02
 -1       134-2.23172E-04 9.72498E-04-1.92267E-03
 -1       135-2.97551E-05 2.29080E-03-2.20444E-02
 -1       136 1.36535E-04-1.49276E-03-4.78892E-03
 -1       137 8.86149E-05-1.86194E-03-8.48551E-03
 -1       138-3.12344E-06-1.51512E-05-3.17359E-03
 -1       139-1.54637E-04 1.47636E-03-4.75629E-03
 -1       140 5.56335E-05-2.12387E-03-1.27512E-02
 -1       141 2.02154E-05-2.27588E-03-1.73293E-02
 -1       142-1.14272E-05-2.34787E-05-1.05278E-02
 -1       143-1.15614E-04 1.82429E-03-8.45861E-03